8
Lattice="4.020313 0.0 0.0 0.0 4.020313 -0.0 0.0 -0.0 4.020313" Properties=species:S:1:pos:R:3:forces:R:3 energy=-3376.4740071 virial="-0.01036584503284248 4.532458497680969e-08 -3.046973801750774e-08 4.532458497680969e-08 -0.01036694879605631 -2.4823105161905364e-09 -3.046973801750774e-08 -2.4823105161905364e-09 -0.0103662987330153" pbc="T T T"
Li       0.00000000       0.00000000       0.00000000      -0.00000034      -0.00000070      -0.00000072
Li       0.00000000       2.01015544       2.01015544      -0.00000070       0.00000053       0.00000263
Li       2.01015544       0.00000000       2.01015544      -0.00000003      -0.00000011       0.00000123
Li       2.01015544       2.01015544       0.00000000      -0.00000087       0.00000014       0.00000041
F        0.00000000       2.01015544       0.00000000       0.00000072       0.00000040      -0.00000654
F        0.00000000       0.00000000       2.01015544       0.00000167      -0.00000081       0.00000068
F        2.01015544       2.01015544       2.01015544       0.00000011       0.00000031       0.00000259
F        2.01015544       0.00000000       0.00000000      -0.00000056       0.00000025      -0.00000029
8
Lattice="4.022338705138 0.0 0.0 0.0 4.022338705138 -0.0 0.0 -0.0 4.022338705138" Properties=species:S:1:pos:R:3:forces:R:3 energy=-3376.4571234 virial="-0.002772951905641517 0.0010929037870975585 -0.0023805484348884123 0.0010929037870975585 0.0016713745741624608 -0.0024875180088435693 -0.0023805484348884123 -0.0024875180088435693 -0.029124837620434888" pbc="T T T"
Li       0.01670188       4.01495014       0.01514499      -0.04766759      -0.00932025      -0.05126664
Li       0.00634381       1.99779099       2.03801684      -0.04633126       0.06899833      -0.07024613
Li       1.97022922       0.00764885       2.00604303       0.14123161      -0.07988974       0.02577479
Li       2.05204141       1.96634992       0.00725520      -0.11230406       0.18725682      -0.02894319
F        0.00505086       2.02886745       4.01273360       0.01234035      -0.13569316       0.11809940
F        4.01955406       4.01850454       2.01765079      -0.03194431       0.04536368      -0.06133992
F        1.99084357       2.00734806       2.01437840       0.11651608      -0.00598349      -0.05019915
F        2.02083029       0.01111576       4.00612890      -0.03184081      -0.07073219       0.11812085
8
Lattice="4.027438344576 0.0 0.0 0.0 4.027438344576 -0.0 0.0 -0.0 4.027438344576" Properties=species:S:1:pos:R:3:forces:R:3 energy=-3376.4337728 virial="-0.04697952087477173 0.0019808930750223456 -0.007638506079555241 0.0019808930750223456 -0.03247130069380587 -0.00564623569592105 -0.007638506079555241 -0.00564623569592105 -0.09660052062991509" pbc="T T T"
Li       0.02728416       4.01159330       0.02366057      -0.06974014       0.01113250      -0.07482315
Li       0.00667747       1.99577694       2.05825585      -0.05931636       0.08246364      -0.11682487
Li       1.95018958       0.00500507       2.00681014       0.21179554      -0.09207833       0.03495094
Li       2.08083270       1.94836555       0.01079615      -0.18361657       0.26367814      -0.03831723
F        0.01073635       2.04273855       4.01386364       0.00565870      -0.20228148       0.17241927
F        4.02030107       4.02189538       2.02378198      -0.03671052       0.05772442      -0.08994500
F        1.97851666       2.00576701       2.01774819       0.18681102       0.00162774      -0.06884579
F        2.03160241       0.01885717       4.00058208      -0.05488166      -0.12226664       0.18138583
8
Lattice="4.031455888098 0.0 0.0 0.0 4.031455888098 -0.0 0.0 -0.0 4.031455888098" Properties=species:S:1:pos:R:3:forces:R:3 energy=-3376.4369097 virial="-0.16511094574751306 -0.0029459534320760822 -0.010408291789686016 -0.0029459534320760822 -0.14219844212615604 -0.004390021294958375 -0.010408291789686016 -0.004390021294958375 -0.17554549736936695" pbc="T T T"
Li       0.02882014       4.00864457       0.02231702      -0.05958730       0.06426680      -0.06231884
Li       4.03041717       2.00410140       2.06261365      -0.03064719       0.03285304      -0.12520861
Li       1.95755255       4.02137575       2.01165148       0.17678321      -0.01904743       0.01719437
Li       2.08491108       1.96478820       0.00925559      -0.19144443       0.18410024      -0.02746138
F        0.01693615       2.04642828       4.02238425      -0.03042882      -0.18905125       0.13923759
F        4.01794347       4.02697416       2.02502909      -0.00147262       0.03063444      -0.07593175
F        1.97440116       2.00358944       2.01717165       0.21035686       0.03348200      -0.04691390
F        2.03945573       0.02078343       4.00260426      -0.07355971      -0.13723783       0.18140252
8
Lattice="4.028800943603 0.0 0.0 0.0 4.028800943603 -0.0 0.0 -0.0 4.028800943603" Properties=species:S:1:pos:R:3:forces:R:3 energy=-3376.4549303 virial="-0.1828329467984708 -0.012474161661776825 -0.006616914450945408 -0.012474161661776825 -0.16821295873086833 -0.001073377558824275 -0.006616914450945408 -0.001073377558824275 -0.15087544740037223" pbc="T T T"
Li       0.02189223       4.00760500       0.01182834      -0.02623204       0.10951864      -0.02119989
Li       4.01481477       2.01451408       2.04577567       0.02357011      -0.04358924      -0.08785769
Li       1.98765200       3.99939119       2.01587702       0.05583562       0.09631127      -0.01815435
Li       2.05823875       2.00597881       0.00357319      -0.12285819       0.00051762      -0.00316566
F        0.02214590       2.03696155       0.00323271      -0.08525069      -0.10599896       0.02654694
F        4.00818287       4.02710020       2.01886343       0.06258712      -0.01796920      -0.02441269
F        1.97746613       1.99942422       2.01053376       0.18232087       0.07322261       0.00983618
F        2.04067034       0.01563015       4.00734032      -0.08997281      -0.11201273       0.11840717
8
Lattice="4.020659067545 0.0 0.0 0.0 4.020659067545 -0.0 0.0 -0.0 4.020659067545" Properties=species:S:1:pos:R:3:forces:R:3 energy=-3376.4557077 virial="0.03202408115168325 -0.012798959451709816 0.0008084230297514332 -0.012798959451709816 0.0005019941393486063 -0.0016025029941019319 0.0008084230297514332 -0.0016025029941019319 0.005856974837666584" pbc="T T T"
Li       0.00974561       4.01707324       4.01697622       0.01159663       0.08522658       0.02915010
Li       3.99495216       2.01814767       2.01063753       0.07657990      -0.08773886      -0.00194895
Li       2.02872750       3.98252181       2.01573926      -0.10536700       0.17295325      -0.04515750
Li       2.00647652       2.05213394       4.01704070       0.01936076      -0.19411817       0.02169089
F        0.02357081       2.01755185       0.01902157      -0.13463574       0.01651000      -0.13062330
F        3.99521750       0.00067192       2.00778540       0.14213395      -0.05264394       0.04270325
F        1.98846556       1.99597117       2.00079432       0.09581748       0.09088122       0.07909243
F        2.03457585       0.00357404       4.01428869      -0.10548598      -0.03107008       0.00509309
8
Lattice="4.018292143351 0.0 0.0 0.0 4.018292143351 -0.0 0.0 -0.0 4.018292143351" Properties=species:S:1:pos:R:3:forces:R:3 energy=-3376.4317486 virial="0.2491120012803181 0.011896525474184582 -0.001837358174842995 0.011896525474184582 0.17536657938478448 -0.001994381225346036 -0.001837358174842995 -0.001994381225346036 0.10375275500883462" pbc="T T T"
Li       4.01481190       0.02967861       4.00000687       0.03050915      -0.04048993       0.06401228
Li       3.98960892       2.01389708       1.97176887       0.09606539      -0.04985819       0.11847287
Li       2.06674811       3.99454023       2.01284788      -0.23520952       0.13280777      -0.03891287
Li       1.95059991       2.08349905       4.00904330       0.19505351      -0.29555380       0.03037007
F        0.01797044       1.99856801       0.03105396      -0.14659392       0.12555531      -0.26679876
F        3.99482920       0.00079462       2.00038945       0.20500456      -0.04554754       0.09452103
F        2.01069054       2.00041545       1.99702544      -0.04928005       0.06436773       0.12534670
F        2.02518152       4.00573921       0.01217829      -0.09554913       0.10871866      -0.12701132
8
Lattice="4.030364925771 0.0 0.0 0.0 4.030364925771 -0.0 0.0 -0.0 4.030364925771" Properties=species:S:1:pos:R:3:forces:R:3 energy=-3376.4078183 virial="0.047179607354023406 0.03624851903408909 -0.018215819634394587 0.03624851903408909 0.04338836803046303 0.004205979040918752 -0.018215819634394587 0.004205979040918752 -0.07245806978836326" pbc="T T T"
Li       4.01480132       0.06460288       4.00335605       0.02375415      -0.21986380       0.06771011
Li       4.01215511       2.00906043       1.94859415       0.05973752       0.05616357       0.21253550
Li       2.08692847       0.01357054       2.01104863      -0.24216679      -0.02392570      -0.00059817
Li       1.91765933       2.08663497       4.01858057       0.31713568      -0.21763445       0.02127596
F        0.00302113       1.98923440       0.03150696      -0.08527975       0.18358303      -0.30011726
F        4.02048108       4.02891767       2.00382886       0.16823273       0.00997096       0.10656259
F        2.04323234       2.01692043       2.00659434      -0.19287266      -0.00859952       0.10433522
F        2.01574216       4.00359401       0.02843560      -0.04854089       0.22030591      -0.21170394
8
Lattice="4.046496831052 0.0 0.0 0.0 4.046496831052 -0.0 0.0 -0.0 4.046496831052" Properties=species:S:1:pos:R:3:forces:R:3 energy=-3376.3993865 virial="-0.4467982522128379 0.01229573192920412 -0.030170328929815984 0.01229573192920412 -0.3218908594248934 0.007980793405907316 -0.030170328929815984 0.007980793405907316 -0.3838370179898456" pbc="T T T"
Li       4.01919327       0.07605726       4.01873570       0.01724515      -0.32825695       0.04794648
Li       0.00450063       2.01141168       1.95138560      -0.01339710       0.14084886       0.21361492
Li       2.07618084       0.05806106       2.00891418      -0.12512923      -0.20958835       0.04967174
Li       1.92393641       2.05742237       4.03481768       0.30324581      -0.02185289       0.00811167
F        4.02556889       1.98781142       0.01534529       0.05429628       0.17589566      -0.18122136
F        0.01687202       4.04275087       2.01449065       0.00705833       0.08136701       0.06255475
F        2.07468852       2.03802395       2.02506769      -0.27567598      -0.09276589       0.02437324
F        2.00113034       4.01374480       0.03748326       0.03235674       0.25435255      -0.22505145
8
Lattice="4.045411180325 0.0 0.0 0.0 4.045411180325 -0.0 0.0 -0.0 4.045411180325" Properties=species:S:1:pos:R:3:forces:R:3 energy=-3376.4024785 virial="-0.497479228237744 -0.059224851720513304 -0.01656518136186144 -0.059224851720513304 -0.47552313463355134 0.00032429893835244576 -0.01656518136186144 0.00032429893835244576 -0.3806934952061404" pbc="T T T"
Li       4.00570794       0.04058449       4.02457781       0.03336928      -0.24117400       0.02208308
Li       0.03287698       2.02444049       1.97769788      -0.08427194       0.11364075       0.12108542
Li       2.03008174       0.08484183       2.00261788       0.04489970      -0.31042456       0.09208344
Li       1.96891544       2.00247116       4.03541071       0.13813210       0.15873277       0.00449434
F        3.99576126       1.98504717       4.02873868       0.21460139       0.12597698       0.05371636
F        0.05296933       4.04310262       2.02106655      -0.19972820       0.10320803      -0.01904223
F        2.08902554       2.04956267       2.03973011      -0.30971879      -0.14137954      -0.10119267
F        1.97250872       4.01945418       0.03632277       0.16271646       0.19141958      -0.17322776
8
Lattice="4.026952240387 0.0 0.0 0.0 4.026952240387 -0.0 0.0 -0.0 4.026952240387" Properties=species:S:1:pos:R:3:forces:R:3 energy=-3376.359361 virial="0.3514914620509831 -0.0878089375782212 0.022584990350849685 -0.0878089375782212 -0.1384151199033085 -0.009108550845570964 0.022584990350849685 -0.009108550845570964 0.10966542233361568" pbc="T T T"
Li       3.97625493       3.98229784       4.01933281       0.07391385       0.06512058       0.00020857
Li       0.05824390       2.05031529       2.02407832      -0.11658319      -0.06866906      -0.06392600
Li       1.96654334       0.07290576       1.99996010       0.28084085      -0.22946995       0.09070182
Li       2.04297071       1.94365537       4.02030812      -0.18219294       0.25253803       0.02424563
F        3.95122299       1.98056822       3.97011834       0.40188339       0.08107894       0.36064298
F        0.08945742       0.00534881       2.02042487      -0.53802192       0.03657705      -0.10850136
F        2.08170402       2.04853981       2.04516172      -0.26137636      -0.12852565      -0.23753658
F        1.93512757       4.02116975       0.02446774       0.34153632      -0.00864993      -0.06583506
8
Lattice="4.025572977037 0.0 0.0 0.0 4.025572977037 -0.0 0.0 -0.0 4.025572977037" Properties=species:S:1:pos:R:3:forces:R:3 energy=-3376.2191583 virial="1.1366919981236179 0.004167822250174431 0.03229032431154115 0.004167822250174431 0.28382698253813315 0.008812299918868305 0.03229032431154115 0.008812299918868305 0.47400736604215093" pbc="T T T"
Li       3.97160476       3.87702444       0.01037229       0.12367084       0.52182725      -0.01028933
Li       0.07448416       2.08599019       2.08749260      -0.10479072      -0.31029890      -0.33826948
Li       1.93608175       0.02182547       2.02175079       0.43253945       0.01855911       0.01454919
Li       2.12505712       1.91463095       0.00167395      -0.58628675       0.21185187       0.04354808
F        3.93782071       1.99083934       3.93521187       0.57910753       0.00957064       0.66139247
F        0.10820998       0.01774444       2.02524286      -0.79252565      -0.08763621      -0.16084422
F        2.06879449       2.05161502       2.05084416      -0.13307451      -0.08568878      -0.30651192
F        1.91582861       0.02077641       0.00487732       0.48135981      -0.27818497       0.09642521
8
Lattice="4.066220109618 0.0 0.0 0.0 4.066220109618 -0.0 0.0 -0.0 4.066220109618" Properties=species:S:1:pos:R:3:forces:R:3 energy=-3376.1673601 virial="0.032673573781388535 0.07475289934237965 0.012427593364887322 0.07475289934237965 -0.07177113681022591 0.05365721623798662 0.012427593364887322 0.05365721623798662 -0.16283931281310787" pbc="T T T"
Li       4.02690724       3.85748913       0.03299888       0.14729734       0.81038425      -0.02658895
Li       0.08015128       2.10862312       2.14302444      -0.08418606      -0.38968001      -0.44423238
Li       1.98011263       4.02159304       2.07493914       0.21267060       0.26469870      -0.07522735
Li       2.16951464       1.92949913       0.01914081      -0.58765662       0.10017949       0.00711297
F        3.99371846       2.02620181       3.96744154       0.40149986      -0.07656812       0.70317014
F        0.09019984       0.02942864       2.04394419      -0.58101443      -0.23542340      -0.14512222
F        2.06533422       2.07219681       2.06272742       0.01806321      -0.05794288      -0.23300278
F        1.93779567       0.04120246       4.05006266       0.47332611      -0.41564803       0.21389058
8
Lattice="4.108646142753 0.0 0.0 0.0 4.108646142753 -0.0 0.0 -0.0 4.108646142753" Properties=species:S:1:pos:R:3:forces:R:3 energy=-3376.2697087 virial="-1.5567311816500307 0.03775506645495461 -0.001771607289662494 0.03775506645495461 -0.9792270014097196 0.049661824114340114 -0.001771607289662494 0.049661824114340114 -1.2372874899851105" pbc="T T T"
Li       0.00335597       3.94276186       0.05884377       0.04831395       0.55520488      -0.09625864
Li       0.07322055       2.07218264       2.14375160      -0.10441530      -0.21740179      -0.23751985
Li       2.06991726       4.01356649       2.12938128      -0.03802459       0.34924637      -0.14154563
Li       2.13141424       1.96175288       0.04387909      -0.21752125       0.08234592      -0.06809182
F        4.08093996       2.06416720       4.03921208       0.06973089      -0.05497679       0.42340459
F        0.03079225       0.03208506       2.05454669      -0.18783484      -0.25545535      -0.05043278
F        2.05445749       2.08985550       2.05855860       0.11066923      -0.09284941      -0.07402599
F        1.98926712       0.04515368       4.07600371       0.31908192      -0.36611382       0.24447012
8
Lattice="4.095754484993 0.0 0.0 0.0 4.095754484993 -0.0 0.0 -0.0 4.095754484993" Properties=species:S:1:pos:R:3:forces:R:3 energy=-3376.3218591 virial="-0.9896432633275835 0.04632520882790869 -0.042011580184833704 0.04632520882790869 -1.0607366915053484 0.05146025467880736 -0.042011580184833704 0.05146025467880736 -1.0754845047647714" pbc="T T T"
Li       0.06736363       4.07680353       0.07731172      -0.16477898      -0.00750644      -0.17950452
Li       0.04608546       1.95579385       2.06942820      -0.12696153       0.23145505       0.00498345
Li       2.15081693       3.98758910       2.14372349      -0.27445448       0.22248846      -0.21347925
Li       2.00736913       1.98589633       0.06558097       0.17969472       0.14774488      -0.16126673
F        0.03790838       2.07615351       4.09171456      -0.16772729      -0.14699188       0.03522169
F        4.03528163       0.02086174       2.03103775       0.33954508      -0.12581526       0.10303358
F        2.01113010       2.07242768       2.01378396       0.16689723      -0.18480040       0.17432948
F        2.04293560       0.02902058       4.05563758       0.04778526      -0.13657440       0.23668230
8
Lattice="4.054798869654 0.0 0.0 0.0 4.054798869654 -0.0 0.0 -0.0 4.054798869654" Properties=species:S:1:pos:R:3:forces:R:3 energy=-3375.9890943 virial="1.9954040409082852 0.16479018614862112 -0.04654875835406721 0.16479018614862112 -0.08802293220393859 0.06311659283496876 -0.04654875835406721 0.06311659283496876 0.3840346251573426" pbc="T T T"
Li       0.12002126       0.15630400       0.07307461      -0.34437983      -0.67079462      -0.20883643
Li       4.04985938       1.83925026       1.96818701      -0.09827587       0.78600051       0.28736139
Li       2.18777344       3.96366466       2.11695579      -0.92877765      -0.00715516      -0.20953200
Li       1.87676756       2.02393812       0.06727885       0.92408301       0.18469782      -0.25356212
F        0.10549558       2.06984170       0.07597830      -0.78408294      -0.19823401      -0.48985666
F        3.90587006       0.00007505       1.99544831       1.32296414      -0.02448730       0.21096036
F        1.95573158       2.02883053       1.95727960       0.23030300      -0.23369976       0.50540352
F        2.09689725       0.00223589       4.01853175      -0.32183386       0.16367252       0.15806195
8
Lattice="4.074826740537 0.0 0.0 0.0 4.074826740537 -0.0 0.0 -0.0 4.074826740537" Properties=species:S:1:pos:R:3:forces:R:3 energy=-3375.8174717 virial="1.5092099166841881 -0.013400921701913333 0.0722327778243767 -0.013400921701913333 -0.23608653862212378 0.040849537854520515 0.0722327778243767 0.040849537854520515 0.5669243188078872" pbc="T T T"
Li       0.13101034       0.25269225       0.04170387      -0.35407107      -1.00039502      -0.11857359
Li       4.00251266       1.84767555       1.93174814      -0.01822982       0.73722721       0.48060846
Li       2.14268981       4.00188980       2.09263074      -0.66350763      -0.04170334      -0.16134179
Li       1.88989926       2.11968122       0.03669424       0.96409881       0.04406545      -0.15544637
F        0.14013897       2.08614384       0.13680762      -0.93297297      -0.08805473      -0.91427370
F        3.89353546       4.05208511       1.99967287       1.32283494       0.14418903       0.27326473
F        1.93974468       2.00331325       1.95331237       0.29535357      -0.10744316       0.62852380
F        2.17021626       4.05652458       4.04964546      -0.61350584       0.31211456      -0.03276153
8
Lattice="4.139882599097 0.0 0.0 0.0 4.139882599097 -0.0 0.0 -0.0 4.139882599097" Properties=species:S:1:pos:R:3:forces:R:3 energy=-3375.9696708 virial="-1.8278435739365604 -0.38817817959723483 0.1665944052089836 -0.38817817959723483 -1.7080628243559772 0.012759243184449211 0.1665944052089836 0.012759243184449211 -0.9523843797263994" pbc="T T T"
Li       0.09568916       0.22318510       4.13523824      -0.24042991      -0.57264331       0.04817558
Li       3.99820502       1.97414831       1.97784386       0.17017517       0.28709035       0.26985124
Li       2.03398586       4.08043261       2.06929571       0.05850106       0.08911731      -0.09406601
Li       2.04629927       2.24159981       4.12652537       0.12215346      -0.35244350       0.06845881
F        0.13226143       2.12011975       0.15488747      -0.42252853      -0.12844152      -0.90046813
F        3.98845592       4.10093544       2.03955535       0.63957926       0.21722183       0.27818503
F        1.96002791       1.99517174       2.00148327       0.33396099       0.17288856       0.46774512
F        2.23758383       4.11588805       4.12428666      -0.66141150       0.28721028      -0.13788163
8
Lattice="4.138903466265 0.0 0.0 0.0 4.138903466265 -0.0 0.0 -0.0 4.138903466265" Properties=species:S:1:pos:R:3:forces:R:3 energy=-3376.0363988 virial="-2.0238654263513114 -0.38689220187729 0.05091319736373579 -0.38689220187729 -1.762589135033482 0.02814270820041662 0.05091319736373579 0.02814270820041662 -1.4743370856454423" pbc="T T T"
Li       0.02919632       0.11425780       4.09505055      -0.00489564      -0.08780848       0.12425071
Li       3.95587714       2.10466809       2.02810991       0.37371550      -0.14358278       0.02777445
Li       1.89993628       4.10507011       2.00297660       0.29434652       0.18937247       0.02663951
Li       2.18752611       2.27785497       4.08479171      -0.30773017      -0.66243046       0.13709915
F        0.09965140       2.11463984       0.12644674      -0.34150409      -0.04339546      -0.65172125
F        4.05157301       4.09475014       2.05984020       0.26175887       0.10075768       0.16692909
F        1.96579494       1.96526990       2.04004824       0.34930703       0.46350771       0.25967574
F        2.23576586       4.12367105       4.12663574      -0.62499802       0.18357931      -0.09064740
8
Lattice="4.056529145249 0.0 0.0 0.0 4.056529145249 -0.0 0.0 -0.0 4.056529145249" Properties=species:S:1:pos:R:3:forces:R:3 energy=-3376.0550314 virial="0.762782253877381 -0.030803196360529046 -0.1296319207612882 -0.030803196360529046 -0.025711053022882853 0.08040582494244304 -0.1296319207612882 0.08040582494244304 -0.19555685972146258" pbc="T T T"
Li       4.02530768       0.00038063       3.99386678       0.30901815       0.28511204       0.16623336
Li       3.88723896       2.16211503       2.03901522       0.44741182      -0.61720858      -0.09039816
Li       1.78224511       0.01314749       1.90734141       0.73291666       0.12020744       0.19715596
Li       2.23194180       2.18285451       3.98418462      -0.73331219      -0.61518826       0.17837921
F        0.05235655       2.06576241       0.06716396      -0.10268926      -0.00207234      -0.30325754
F        4.04060330       4.01427200       2.04520224      -0.34604406       0.18149640      -0.06612179
F        1.94882899       1.92129151       2.04695042       0.29424296       0.65246619      -0.06289762
F        2.15997583       0.00142005       4.04329755      -0.60154408      -0.00481289      -0.01909342
8
Lattice="4.00169664077 0.0 0.0 0.0 4.00169664077 -0.0 0.0 -0.0 4.00169664077" Properties=species:S:1:pos:R:3:forces:R:3 energy=-3376.0955644 virial="2.2137219357793074 0.22571116406630218 -0.175264071277777 0.22571116406630218 1.2870727058521736 0.03978295501543924 -0.175264071277777 0.03978295501543924 1.051616837865866" pbc="T T T"
Li       3.95410363       3.93738687       3.94348178       0.31644840       0.43778964       0.16412332
Li       3.89929219       2.14541597       2.04554887       0.30507524      -0.69794621      -0.18054559
Li       1.77969061       0.06784490       1.85735341       0.88148111      -0.11952025       0.36222376
Li       2.18771813       2.03366580       3.93641919      -0.84947269      -0.19240924       0.21532411
F        0.00708736       2.03086623       0.00185449       0.23352283      -0.12561073       0.16354129
F        0.03071397       3.96966229       2.03779641      -0.69993643       0.26763707      -0.31679003
F        1.95601979       1.92100541       2.05830079       0.18433963       0.60607965      -0.44870981
F        2.07518939       0.01576449       3.98663499      -0.37145809      -0.17601994       0.04083295
8
Lattice="4.04538214114 0.0 0.0 0.0 4.04538214114 -0.0 0.0 -0.0 4.04538214114" Properties=species:S:1:pos:R:3:forces:R:3 energy=-3376.3064453 virial="-0.12114400317301761 0.07745514148301218 -0.02869781250083169 0.07745514148301218 0.1546133979011945 -0.049101249461993075 -0.02869781250083169 -0.049101249461993075 0.03899881063316569" pbc="T T T"
Li       4.02039722       3.97605626       4.00902029       0.08429437       0.21519058       0.04032187
Li       4.03476026       2.09744541       2.07541133       0.02913434      -0.21880119      -0.15815841
Li       1.92122178       0.10020210       1.90202031       0.32297833      -0.34421325       0.39613443
Li       2.09983519       1.93003726       4.00973568      -0.27613945       0.33092257       0.06360744
F        4.02307468       2.04160305       3.99893021       0.15598690      -0.15850055       0.45521189
F        0.04174511       4.03273179       2.06326329      -0.32237891       0.12787191      -0.39569005
F        2.01482239       1.99097909       2.09451580       0.05240925       0.24852630      -0.54745034
F        2.03300827       0.02070420       4.03055445      -0.04628483      -0.20099637       0.14602317
8
Lattice="4.110805218422 0.0 0.0 0.0 4.110805218422 -0.0 0.0 -0.0 4.110805218422" Properties=species:S:1:pos:R:3:forces:R:3 energy=-3376.2931501 virial="-1.7595729434139722 -0.05335813424283612 0.02460928853812685 -0.05335813424283612 -1.3541635525988331 -0.03862207197250768 0.02460928853812685 -0.03862207197250768 -1.497704299278314" pbc="T T T"
Li       0.00467550       4.06334192       4.09743636      -0.06010892      -0.02491564      -0.04154718
Li       0.06835938       2.04498968       2.09618073      -0.18622049       0.12964016      -0.06548038
Li       2.09393184       0.08651084       1.99960212      -0.02627698      -0.35233825       0.21373288
Li       2.00722700       1.89842300       4.10721700       0.15189243       0.57236842      -0.06388020
F        4.07193564       2.05825621       4.04419919       0.16230188      -0.13477983       0.44941785
F        0.03565036       0.00932276       2.08192779      -0.09812937       0.05560680      -0.27347412
F        2.07991502       2.07383213       2.11551975      -0.09723791      -0.14140054      -0.39155486
F        2.01094884       0.01627400       4.10244191       0.15377937      -0.10418112       0.17278600
8
Lattice="4.100131861512 0.0 0.0 0.0 4.100131861512 -0.0 0.0 -0.0 4.100131861512" Properties=species:S:1:pos:R:3:forces:R:3 energy=-3376.2731333 virial="-1.1580413574025397 -0.07054400342838373 0.013787117207354826 -0.07054400342838373 -1.322375888648646 0.01488646643519491 0.013787117207354826 0.01488646643519491 -1.4113485650976638" pbc="T T T"
Li       0.02138981       4.06945385       0.00126262      -0.14243517      -0.09283921      -0.02012424
Li       0.10859235       1.98578539       2.07167378      -0.28512392       0.27666936      -0.04215549
Li       2.19754308       0.03173112       2.07327829      -0.30723121      -0.20896368      -0.01267875
Li       1.91953172       1.91187086       0.01586185       0.40083945       0.48697599      -0.04475933
F        4.05587842       2.03402854       4.03839511       0.15988578      -0.05345939       0.33892844
F        0.02549877       0.02916047       2.05270379       0.03324078      -0.06072833      -0.08965641
F        2.09605865       2.10296497       2.08222107      -0.17372535      -0.30405500      -0.19695811
F        1.96915190       0.00755252       0.00431062       0.31454964      -0.04359974       0.06740389
8
Lattice="4.022973216131 0.0 0.0 0.0 4.022973216131 -0.0 0.0 -0.0 4.022973216131" Properties=species:S:1:pos:R:3:forces:R:3 energy=-3376.283886 virial="0.775997611092505 -0.02124480997704909 -0.024156377958405317 -0.02124480997704909 0.2435199186083218 0.02316204599393217 -0.024156377958405317 0.02316204599393217 0.12089983695033747" pbc="T T T"
Li       0.01697040       3.99615773       0.01082065      -0.17850694      -0.03408164       0.00516829
Li       0.10474653       1.93800771       2.01138784      -0.27465149       0.29817214      -0.03918525
Li       2.20594733       3.98492247       2.09737799      -0.60820257       0.10417610      -0.22564834
Li       1.86540350       1.95025152       0.02594432       0.51740287       0.19547330      -0.02513305
F        3.98184481       1.97813714       3.98166428       0.04243939       0.11086302       0.17207140
F        0.01865602       0.04167700       1.99052234       0.20071146      -0.26072613       0.11960933
F        2.06661124       2.07798766       2.01128161      -0.18127664      -0.38853500       0.03741344
F        1.91669483       4.02104346       0.01770363       0.48208392      -0.02534179      -0.04429582
8